Year,name,formula,Tc_K,Pc_bar,GWP,ODP
1980,R-12,CCl2F2,385,41,10900,1
1985,R-22,CHClF2,369,49,1760,0.05
1990,R-134a,CH2FCF3,374,40,1430,0
1995,R-410A,Blend,344,49,2088,0
2000,R-32,CH2F2,351,57,675,0
2005,R-290,C3H8,370,42,3,0
2010,R-600a,C4H10,425,36,3,0
2015,R-1234yf,CH2=CFCF3,367,34,4,0
2020,R-717,NH3,405,113,0,0
2025,R-744,CO2,304,74,1,0