Name,Formula,Tc_K,Pc_bar,ODP,GWP
R-11,CCl3F,471.2,44.4,1.0,4750
R-12,CCl2F2,385.0,41.4,1.0,10900
R-22,CHClF2,369.3,49.9,0.05,1810
R-32,CH2F2,351.3,57.8,0,675
R-123,CHCl2CF3,456.8,36.7,0.02,77
R-125,C2HF5,339.2,36.2,0,3500
R-134a,C2H2F4,374.2,40.6,0,1430
R-143a,C2H3F3,345.9,37.9,0,4470
R-152a,C2H4F2,386.7,45.2,0,124
R-290,C3H8,369.8,42.5,0,3
R-600a,C4H10,407.7,36.4,0,3
R-717,NH3,406.0,113.0,0,0
R-744,CO2,304.1,73.8,0,1